! Touchstone file exported from HFSS 2020.1.0
!        File:           D:/Users/rblandin/Documents/Ansoft/scatterer_in_waveguide.aedt
!        Generated:      5:07:13  janv. 16, 2025
!        Design:         HFSSDesign1
!        Project:        scatterer_in_waveguide
!        Setup:          scatmat
!        Solution:       Sweep
!
! Variables:
!        $height = 1mm
!        $pos_x = 100mm
!        $pos_x_1 = 28.772922mm
!        $pos_x_2 = 55.98679mm
!        $pos_x_3 = 44.27246mm
!        $pos_y = 25mm
!        $pos_y_1 = 43.348048mm
!        $pos_y_2 = 48.8323mm
!        $pos_y_3 = 236.06804mm
!        $radius = 3.1mm
!
# GHZ S MA R 50.000000
! Terminal data exported
! Port[1] = 1:1
! Port[2] = 1:2
! Port[3] = 1:3
! Port[4] = 1:4
! Port[5] = 2:1
! Port[6] = 2:2
! Port[7] = 2:3
! Port[8] = 2:4
6                              0.255858649504092 -177.034936455976 0.0201605651272379 67.6597433840075 0.0391970347605065 -158.91124545133 0.0303911015151999 21.3933676698041 
                0.962497038493355 -92.260858793173 0.0014890984625463 139.259285417584 0.016622778542643 7.09687641910193 0.0245518099303758 13.2834863916289 
                0.0201605651272379 67.6597433840074 0.0773828990524875 106.567801977104 0.0146070153362438 93.6840501526838 0.0193115538837067 -60.8262615875705 
                0.00339194156023845 -13.8327729491672 0.993298849403421 -156.735582385991 0.0142425031420888 -117.560628280821 0.00380878859128997 -98.3498879108997 
                0.0391970347605064 -158.91124545133 0.0146070153362439 93.6840501526839 0.117999043922505 -24.3203021335383 0.0746327963739442 2.04526577248683 
                0.0266547315808834 142.501626847281 0.0145767589469808 -145.52670363166 0.986361200445785 70.2737106734345 0.0429572003624769 -0.304789088664543 
                0.0303911015152  21.3933676698041 0.0193115538837067 -60.8262615875701 0.0746327963739443 2.04526577248694 0.924837585684319 0.900827291373566 
                0.0388591484024619 -40.1240083990078 0.0203557929484735 -11.6281814647182 0.0709969216350999 162.877270971828 0.139083361317639 178.583640791791 
                0.962497038493354 -92.260858793173 0.00339194156023837 -13.832772949168 0.0266547315808841 142.501626847281 0.0388591484024619 -40.1240083990078 
                0.254089468675151 172.194211482593 0.0196513930737804 -138.777253139846 0.0429030334019089 -46.0926804212459 0.0292058090742047 -35.1774836976329 
                0.00148909846254631 139.259285417587 0.993298849403421 -156.735582385991 0.0145767589469814 -145.52670363166 0.0203557929484734 -11.6281814647183 
                0.0196513930737804 -138.777253139846 0.0777807422286811 120.738592053401 0.0127963357077407 5.83441409014579 0.00402924277012989 2.16572844388366 
                0.016622778542643 7.09687641910208 0.0142425031420886 -117.560628280821 0.986361200445786 70.2737106734344 0.0709969216350999 162.877270971828 
                0.0429030334019089 -46.092680421246 0.0127963357077407 5.83441409014554 0.119673955651362 -13.1305690092036 0.0409652972073644 160.832433940705 
                0.0245518099303759 13.2834863916289 0.00380878859128991 -98.3498879108995 0.042957200362477 -0.304789088664525 0.139083361317638 178.583640791791 
                0.0292058090742047 -35.1774836976329 0.00402924277012983 2.16572844388512 0.0409652972073645 160.832433940705 0.923666379206139 0.720479210421704 
! Gamma         0.00699572204655348 121.809163113838 0                0                0                0                0                0                
!               0                0                0                0                0                0                0                0                
!               0                0                0.0080519048787149 108.978649784766 0                0                0                0                
!               0                0                0                0                0                0                0                0                
!               0                0                0                0                0.0110415026778733 83.3041172049311 0                0                
!               0                0                0                0                0                0                0                0                
!               0                0                0                0                0                0                0.202440933558277 4.83289840692593 
!               0                0                0                0                0                0                0                0                
!               0                0                0                0                0                0                0                0                
!               0.00699572298570731 121.809166608437 0                0                0                0                0                0                
!               0                0                0                0                0                0                0                0                
!               0                0                0.00805201139349019 108.979134914687 0                0                0                0                
!               0                0                0                0                0                0                0                0                
!               0                0                0                0                0.01103913095769 83.3070090875412 0                0                
!               0                0                0                0                0                0                0                0                
!               0                0                0                0                0                0                0.201545066681712 4.85035533032302 
! Port Impedance50               0                0                0                0                0                0                0                
!               0                0                0                0                0                0                0                0                
!               0                0                50               0                0                0                0                0                
!               0                0                0                0                0                0                0                0                
!               0                0                0                0                50               0                0                0                
!               0                0                0                0                0                0                0                0                
!               0                0                0                0                0                0                50               0                
!               0                0                0                0                0                0                0                0                
!               0                0                0                0                0                0                0                0                
!               50               0                0                0                0                0                0                0                
!               0                0                0                0                0                0                0                0                
!               0                0                50               0                0                0                0                0                
!               0                0                0                0                0                0                0                0                
!               0                0                0                0                50               0                0                0                
!               0                0                0                0                0                0                0                0                
!               0                0                0                0                0                0                50               0                

6.02                           0.245942961613718 172.158028666535 0.0185087816968942 60.8200692767539 0.0299091165343872 -165.406564297067 0.00784584688398518 -156.808558545941 
                0.965607339425656 -101.547935457898 0.00154079090144639 61.7952720726715 0.00879206816449743 9.09184026777132 0.0126217800399661 -107.142120539231 
                0.0185087816968938 60.8200692767539 0.050728287438713 94.9290557798132 0.0112586108788535 89.7998426722249 0.0148625429420064 -7.19713084068115 
                0.00381573581237267 -47.6899456480624 0.994971903993706 -167.894542204265 0.0128877573354316 -134.529505624282 0.00770147333616722 152.999133101554 
                0.0299091165343851 -165.406564297066 0.0112586108788521 89.7998426722217 0.110502643173676 -38.7520650749718 0.0124951489183705 44.5028145845735 
                0.0167826896065666 124.547903279688 0.0132830324168821 -156.202142779491 0.987997425255868 56.717366716467  0.0294053766653439 -138.122507629395 
                0.00784584688398356 -156.808558545926 0.0148625429420064 -7.19713084068316 0.0124951489183702 44.502814584566  0.974619948365907 0.39415490822775 
                0.00926932043081219 -119.456369709006 0.0151439563131491 8.93280241032794 0.0131063478043556 164.71424134872  0.189655345229996 89.829133535667  
                0.965607339425656 -101.547935457898 0.00381573581237277 -47.6899456480628 0.016782689606567 124.547903279688 0.00926932043081197 -119.456369709006 
                0.245036483146011 164.719170236456 0.0185282114740891 -150.218681085112 0.0324744740602868 -60.321527956102 0.0144602362057581 -178.238885000217 
                0.00154079090144414 61.7952720727517 0.994971903993705 -167.894542204265 0.0132830324168828 -156.202142779485 0.0151439563131489 8.93280241032809 
                0.0185282114740891 -150.218681085115 0.0510159090614794 110.132025709868 0.0094228963964634 -16.0555760013893 0.0075454029278097 -168.778028957875 
                0.00879206816449669 9.09184026776951 0.0128877573354313 -134.529505624282 0.987997425255871 56.717366716467  0.0131063478043554 164.71424134872  
                0.0324744740602871 -60.3215279561019 0.00942289639646252 -16.0555760013919 0.111864044654246 -26.3419811282797 0.0269048104435649 16.0326033365165 
                0.0126217800399693 -107.142120539228 0.00770147333616701 152.999133101552 0.0294053766653446 -138.122507629396 0.189655345229996 89.829133535667  
                0.0144602362057586 -178.238885000218 0.00754540292780967 -168.778028957876 0.0269048104435651 16.0326033365165 0.974621341795305 0.732851718651839 
! Gamma         0.00700537193620913 122.242142201803 0                0                0                0                0                0                
!               0                0                0                0                0                0                0                0                
!               0                0                0.00805439184422668 109.462391430184 0                0                0                0                
!               0                0                0                0                0                0                0                0                
!               0                0                0                0                0.0110072506322685 83.9359567735314 0                0                
!               0                0                0                0                0                0                0                0                
!               0                0                0                0                0                0                0.0864973496811309 11.3574697935625 
!               0                0                0                0                0                0                0                0                
!               0                0                0                0                0                0                0                0                
!               0.00700537288775355 122.242145684039 0                0                0                0                0                0                
!               0                0                0                0                0                0                0                0                
!               0                0                0.0080545006518452 109.462874418825 0                0                0                0                
!               0                0                0                0                0                0                0                0                
!               0                0                0                0                0.0110049022485572 83.9388268892359 0                0                
!               0                0                0                0                0                0                0                0                
!               0                0                0                0                0                0                0.086369360110545 11.3649242298115 
! Port Impedance50               0                0                0                0                0                0                0                
!               0                0                0                0                0                0                0                0                
!               0                0                50               0                0                0                0                0                
!               0                0                0                0                0                0                0                0                
!               0                0                0                0                50               0                0                0                
!               0                0                0                0                0                0                0                0                
!               0                0                0                0                0                0                50               0                
!               0                0                0                0                0                0                0                0                
!               0                0                0                0                0                0                0                0                
!               50               0                0                0                0                0                0                0                
!               0                0                0                0                0                0                0                0                
!               0                0                50               0                0                0                0                0                
!               0                0                0                0                0                0                0                0                
!               0                0                0                0                50               0                0                0                
!               0                0                0                0                0                0                0                0                
!               0                0                0                0                0                0                50               0                

6.04                           0.233746227776974 162.071518345602 0.0176887027235476 59.2416670504677 0.0319287282828034 -172.843850376668 0.0217413601324809 94.7580892854482 
                0.96812553581492 -111.275869844352 0.00160018101659372 66.5884331719091 0.0118420141777975 -5.09755775873639 0.0234806055333399 -108.949612880713 
                0.0176887027235476 59.2416670504669 0.0216532553995038 78.2632456584131 0.0110391476752055 80.4169298103517 0.0402589936255615 -68.7250837478132 
                0.00479030885082797 -64.3500728716924 0.994649737791574 -179.055823488873 0.0142027149127048 -155.341126233045 0.0346431451879982 90.2196666890578 
                0.0319287282828034 -172.843850376669 0.0110391476752057 80.4169298103504 0.0774533905156512 -58.7723447224812 0.0573743278506498 -13.9471316246095 
                0.0181547938583443 109.762915362122 0.0119630111811822 -176.331407023663 0.988422175655217 42.1506580581482 0.0534162925220162 152.784805828971 
                0.0217413601324816 94.7580892854477 0.0402589936255622 -68.7250837478129 0.057374327850651 -13.9471316246091 0.219375309566304 -67.8653685976124 
                0.0233254246951069 -152.513764069534 0.0405531449169333 -65.5210098041964 0.0543841995546323 96.6842971509569 0.888938901386648 13.1034625017623 
                0.96812553581492 -111.275869844352 0.00479030885082797 -64.3500728716931 0.0181547938583442 109.762915362123 0.0233254246951073 -152.513764069534 
                0.233662945405227 155.571562339903 0.017962665117945 -163.97812811267 0.0327172578515508 -74.8006517131153 0.015080083516796 13.6080589322248 
                0.00160018101659396 66.5884331718932 0.994649737791574 -179.055823488873 0.011963011181182 -176.331407023664 0.0405531449169336 -65.5210098041962 
                0.0179626651179451 -163.978128112669 0.0214985099266533 98.1327530998555 0.00627938190806039 -49.3113642144105 0.0357278441022049 93.3914237552967 
                0.0118420141777976 -5.09755775873698 0.0142027149127049 -155.341126233046 0.988422175655215 42.1506580581482 0.0543841995546326 96.6842971509561 
                0.0327172578515507 -74.8006517131148 0.00627938190806073 -49.3113642144107 0.0844274774423053 -34.7595313034508 0.0463449228073171 -95.5757989089749 
                0.0234806055333401 -108.949612880712 0.0346431451879988 90.2196666890584 0.0534162925220171 152.784805828972 0.888938901386649 13.1034625017624 
                0.0150800835167956 13.6080589322241 0.0357278441022049 93.3914237552968 0.0463449228073167 -95.5757989089744 0.254632726914797 -46.4610529115186 
! Gamma         0.00701501684066046 122.67502627732  0                0                0                0                0                0                
!               0                0                0                0                0                0                0                0                
!               0                0                0.00805696199026098 109.945603810261 0                0                0                0                
!               0                0                0                0                0                0                0                0                
!               0                0                0                0                0.0109739435125237 84.5651545690573 0                0                
!               0                0                0                0                0                0                0                0                
!               0                0                0                0                0                0                0.0643452083139702 15.3300078797263 
!               0                0                0                0                0                0                0                0                
!               0                0                0                0                0                0                0                0                
!               0.00701501780510076 122.675029747284 0                0                0                0                0                0                
!               0                0                0                0                0                0                0                0                
!               0                0                0.00805707307046035 109.946084678779 0                0                0                0                
!               0                0                0                0                0                0                0                0                
!               0                0                0                0                0.0109716179243764 84.5680033320698 0                0                
!               0                0                0                0                0                0                0                0                
!               0                0                0                0                0                0                0.0642693215451317 15.3355319244518 
! Port Impedance50               0                0                0                0                0                0                0                
!               0                0                0                0                0                0                0                0                
!               0                0                50               0                0                0                0                0                
!               0                0                0                0                0                0                0                0                
!               0                0                0                0                50               0                0                0                
!               0                0                0                0                0                0                0                0                
!               0                0                0                0                0                0                50               0                
!               0                0                0                0                0                0                0                0                
!               0                0                0                0                0                0                0                0                
!               50               0                0                0                0                0                0                0                
!               0                0                0                0                0                0                0                0                
!               0                0                50               0                0                0                0                0                
!               0                0                0                0                0                0                0                0                
!               0                0                0                0                50               0                0                0                
!               0                0                0                0                0                0                0                0                
!               0                0                0                0                0                0                50               0                

6.06                           0.215013482654661 151.790825284998 0.0170973201461736 53.6390586866129 0.0308182791122091 177.865624957359 0.00838011159122968 78.3458330624438 
                0.972897634918946 -121.009147519246 0.00221867258775244 24.3017511665727 0.0120532755031499 -14.0461852303543 0.0133834241603642 -174.536806676077 
                0.0170973201461739 53.6390586866126 0.00872411635885888 -96.6908105482741 0.00768368165743813 87.0251481595963 0.00847718366820225 -38.4861355639706 
                0.00410860807615029 -76.3453511375915 0.996271929998343 169.768113293059 0.0126994896022367 -163.096693505144 0.0147340361082688 0.892653557874695 
                0.0308182791122092 177.865624957359 0.00768368165743821 87.025148159597  0.0480167999692876 -87.1716627431192 0.0193345461199926 29.3356704358062 
                0.0197559353681955 98.0869493598358 0.0132227502841343 176.666171284111 0.993308160780977 27.6287498347567 0.0133092464777396 72.9507362251085 
                0.00838011159122966 78.3458330624442 0.00847718366820253 -38.4861355639696 0.0193345461199925 29.3356704358065 0.916621245749984 9.14189569515112 
                0.00471252084176975 -4.28746187768776 0.00653140060538304 -13.608933553336 0.0138973080044424 169.556914899681 0.377088334978431 -81.3863700745131 
                0.972897634918945 -121.009147519246 0.00410860807615021 -76.3453511375924 0.0197559353681956 98.0869493598357 0.00471252084176967 -4.28746187768839 
                0.214160830235731 146.333695988208 0.0170474225589248 176.172476105547 0.0336629965864859 -91.6274396054638 0.0133004949516156 -119.157372161541 
                0.00221867258775236 24.3017511665745 0.996271929998343 169.768113293059 0.0132227502841346 176.666171284111 0.00653140060538344 -13.6089335533362 
                0.0170474225589249 176.172476105546 0.00882013033480401 -108.286026227687 0.00708314069474959 -70.5906771936567 0.0157695547568905 -11.9292164210656 
                0.01205327550315 -14.0461852303544 0.0126994896022367 -163.096693505144 0.993308160780977 27.6287498347567 0.0138973080044422 169.556914899681 
                0.0336629965864859 -91.6274396054637 0.00708314069474955 -70.5906771936558 0.0498748299871684 -35.4949207683542 0.0174668653314244 123.799850865517 
                0.0133834241603642 -174.536806676076 0.0147340361082687 0.892653557874903 0.0133092464777394 72.9507362251087 0.37708833497843 -81.3863700745132 
                0.0133004949516156 -119.157372161541 0.0157695547568901 -11.9292164210666 0.0174668653314241 123.799850865517 0.916857506616558 7.55455007912726 
! Gamma         0.00702465667962442 123.10781634257  0                0                0                0                0                0                
!               0                0                0                0                0                0                0                0                
!               0                0                0.00805961362999241 110.428293872753 0                0                0                0                
!               0                0                0                0                0                0                0                0                
!               0                0                0                0                0.0109415495707479 85.1917691250766 0                0                
!               0                0                0                0                0                0                0                0                
!               0                0                0                0                0                0                0.0536056348462927 18.4764677713852 
!               0                0                0                0                0                0                0                0                
!               0                0                0                0                0                0                0                0                
!               0.00702465765638226 123.107819800352 0                0                0                0                0                0                
!               0                0                0                0                0                0                0                0                
!               0                0                0.00805972696283761 110.428772641968 0                0                0                0                
!               0                0                0                0                0                0                0                0                
!               0                0                0                0                0.0109392462569949 85.1945969365042 0                0                
!               0                0                0                0                0                0                0                0                
!               0                0                0                0                0                0                0.0535486811263008 18.4810515307479 
! Port Impedance50               0                0                0                0                0                0                0                
!               0                0                0                0                0                0                0                0                
!               0                0                50               0                0                0                0                0                
!               0                0                0                0                0                0                0                0                
!               0                0                0                0                50               0                0                0                
!               0                0                0                0                0                0                0                0                
!               0                0                0                0                0                0                50               0                
!               0                0                0                0                0                0                0                0                
!               0                0                0                0                0                0                0                0                